# vtk DataFile Version 3.0
Laplacian Solver Output
ASCII
DATASET STRUCTURED_GRID
DIMENSIONS 10 10 1
POINTS 100 double
0 0 0.0
0.111111 0 0.0
0.222222 0 0.0
0.333333 0 0.0
0.444444 0 0.0
0.555556 0 0.0
0.666667 0 0.0
0.777778 0 0.0
0.888889 0 0.0
1 0 0.0
0 0.111111 0.0
0.111111 0.111111 0.0
0.222222 0.111111 0.0
0.333333 0.111111 0.0
0.444444 0.111111 0.0
0.555556 0.111111 0.0
0.666667 0.111111 0.0
0.777778 0.111111 0.0
0.888889 0.111111 0.0
1 0.111111 0.0
0 0.222222 0.0
0.111111 0.222222 0.0
0.222222 0.222222 0.0
0.333333 0.222222 0.0
0.444444 0.222222 0.0
0.555556 0.222222 0.0
0.666667 0.222222 0.0
0.777778 0.222222 0.0
0.888889 0.222222 0.0
1 0.222222 0.0
0 0.333333 0.0
0.111111 0.333333 0.0
0.222222 0.333333 0.0
0.333333 0.333333 0.0
0.444444 0.333333 0.0
0.555556 0.333333 0.0
0.666667 0.333333 0.0
0.777778 0.333333 0.0
0.888889 0.333333 0.0
1 0.333333 0.0
0 0.444444 0.0
0.111111 0.444444 0.0
0.222222 0.444444 0.0
0.333333 0.444444 0.0
0.444444 0.444444 0.0
0.555556 0.444444 0.0
0.666667 0.444444 0.0
0.777778 0.444444 0.0
0.888889 0.444444 0.0
1 0.444444 0.0
0 0.555556 0.0
0.111111 0.555556 0.0
0.222222 0.555556 0.0
0.333333 0.555556 0.0
0.444444 0.555556 0.0
0.555556 0.555556 0.0
0.666667 0.555556 0.0
0.777778 0.555556 0.0
0.888889 0.555556 0.0
1 0.555556 0.0
0 0.666667 0.0
0.111111 0.666667 0.0
0.222222 0.666667 0.0
0.333333 0.666667 0.0
0.444444 0.666667 0.0
0.555556 0.666667 0.0
0.666667 0.666667 0.0
0.777778 0.666667 0.0
0.888889 0.666667 0.0
1 0.666667 0.0
0 0.777778 0.0
0.111111 0.777778 0.0
0.222222 0.777778 0.0
0.333333 0.777778 0.0
0.444444 0.777778 0.0
0.555556 0.777778 0.0
0.666667 0.777778 0.0
0.777778 0.777778 0.0
0.888889 0.777778 0.0
1 0.777778 0.0
0 0.888889 0.0
0.111111 0.888889 0.0
0.222222 0.888889 0.0
0.333333 0.888889 0.0
0.444444 0.888889 0.0
0.555556 0.888889 0.0
0.666667 0.888889 0.0
0.777778 0.888889 0.0
0.888889 0.888889 0.0
1 0.888889 0.0
0 1 0.0
0.111111 1 0.0
0.222222 1 0.0
0.333333 1 0.0
0.444444 1 0.0
0.555556 1 0.0
0.666667 1 0.0
0.777778 1 0.0
0.888889 1 0.0
1 1 0.0
POINT_DATA 100
SCALARS Numerical_Solution float 1
LOOKUP_TABLE default
1.11644
1.24049
1.37841
1.53185
1.70255
1.8924
2.1034
2.33768
2.59739
2.88288
1.24049
1.37832
1.53157
1.70205
1.89172
2.10266
2.33711
2.59742
2.88599
3.20494
1.37841
1.53157
1.70195
1.89159
2.10266
2.33752
2.5987
2.88897
3.21133
3.56914
1.53185
1.70205
1.89159
2.10272
2.3379
2.59978
2.89127
3.21556
3.57622
3.97733
1.70255
1.89172
2.10266
2.3379
2.60019
2.89251
3.21815
3.58077
3.98448
4.43393
1.8924
2.10266
2.33752
2.59978
2.89251
3.21903
3.58305
3.98872
4.44068
4.94415
2.1034
2.33711
2.5987
2.89127
3.21815
3.58305
3.99014
4.44406
4.95003
5.51393
2.33768
2.59742
2.88897
3.21556
3.58077
3.98872
4.44406
4.95201
5.51846
6.14995
2.59739
2.88599
3.21133
3.57622
3.98448
4.44068
4.95003
5.51846
6.15256
6.8597
2.88288
3.20494
3.56914
3.97733
4.43393
4.94415
5.51393
6.14995
6.8597
7.65155
SCALARS Exact_Solution float 1
LOOKUP_TABLE default
1
1.11752
1.24885
1.39561
1.55962
1.74291
1.94773
2.17663
2.43243
2.71828
1.11752
1.24885
1.39561
1.55962
1.74291
1.94773
2.17663
2.43243
2.71828
3.03773
1.24885
1.39561
1.55962
1.74291
1.94773
2.17663
2.43243
2.71828
3.03773
3.39472
1.39561
1.55962
1.74291
1.94773
2.17663
2.43243
2.71828
3.03773
3.39472
3.79367
1.55962
1.74291
1.94773
2.17663
2.43243
2.71828
3.03773
3.39472
3.79367
4.2395
1.74291
1.94773
2.17663
2.43243
2.71828
3.03773
3.39472
3.79367
4.2395
4.73772
1.94773
2.17663
2.43243
2.71828
3.03773
3.39472
3.79367
4.2395
4.73772
5.29449
2.17663
2.43243
2.71828
3.03773
3.39472
3.79367
4.2395
4.73772
5.29449
5.91669
2.43243
2.71828
3.03773
3.39472
3.79367
4.2395
4.73772
5.29449
5.91669
6.61202
2.71828
3.03773
3.39472
3.79367
4.2395
4.73772
5.29449
5.91669
6.61202
7.38906
