# vtk DataFile Version 3.0
Laplacian Solver Output
ASCII
DATASET STRUCTURED_GRID
DIMENSIONS 8 8 1
POINTS 64 double
0 0 0.0
0.142857 0 0.0
0.285714 0 0.0
0.428571 0 0.0
0.571429 0 0.0
0.714286 0 0.0
0.857143 0 0.0
1 0 0.0
0 0.142857 0.0
0.142857 0.142857 0.0
0.285714 0.142857 0.0
0.428571 0.142857 0.0
0.571429 0.142857 0.0
0.714286 0.142857 0.0
0.857143 0.142857 0.0
1 0.142857 0.0
0 0.285714 0.0
0.142857 0.285714 0.0
0.285714 0.285714 0.0
0.428571 0.285714 0.0
0.571429 0.285714 0.0
0.714286 0.285714 0.0
0.857143 0.285714 0.0
1 0.285714 0.0
0 0.428571 0.0
0.142857 0.428571 0.0
0.285714 0.428571 0.0
0.428571 0.428571 0.0
0.571429 0.428571 0.0
0.714286 0.428571 0.0
0.857143 0.428571 0.0
1 0.428571 0.0
0 0.571429 0.0
0.142857 0.571429 0.0
0.285714 0.571429 0.0
0.428571 0.571429 0.0
0.571429 0.571429 0.0
0.714286 0.571429 0.0
0.857143 0.571429 0.0
1 0.571429 0.0
0 0.714286 0.0
0.142857 0.714286 0.0
0.285714 0.714286 0.0
0.428571 0.714286 0.0
0.571429 0.714286 0.0
0.714286 0.714286 0.0
0.857143 0.714286 0.0
1 0.714286 0.0
0 0.857143 0.0
0.142857 0.857143 0.0
0.285714 0.857143 0.0
0.428571 0.857143 0.0
0.571429 0.857143 0.0
0.714286 0.857143 0.0
0.857143 0.857143 0.0
1 0.857143 0.0
0 1 0.0
0.142857 1 0.0
0.285714 1 0.0
0.428571 1 0.0
0.571429 1 0.0
0.714286 1 0.0
0.857143 1 0.0
1 1 0.0
POINT_DATA 64
SCALARS Numerical_Solution float 1
LOOKUP_TABLE default
1.0019
1.15523
1.33211
1.53616
1.77152
2.04301
2.3561
2.7171
1.15523
1.33203
1.53599
1.77127
2.04268
2.35575
2.71682
3.13324
1.33211
1.53599
1.7712
2.04254
2.35557
2.71665
3.13316
3.61357
1.53616
1.77127
2.04254
2.35551
2.71657
3.13309
3.61357
4.16782
1.77152
2.04268
2.35557
2.71657
3.13307
3.61356
4.16786
4.80729
2.04301
2.35575
2.71665
3.13309
3.61356
4.16786
4.80732
5.54501
2.3561
2.71682
3.13316
3.61357
4.16786
4.80732
5.54503
6.39607
2.7171
3.13324
3.61357
4.16782
4.80729
5.54501
6.39607
7.37785
SCALARS Exact_Solution float 1
LOOKUP_TABLE default
1
1.15356
1.33071
1.53506
1.77079
2.04273
2.35642
2.71828
1.15356
1.33071
1.53506
1.77079
2.04273
2.35642
2.71828
3.13571
1.33071
1.53506
1.77079
2.04273
2.35642
2.71828
3.13571
3.61725
1.53506
1.77079
2.04273
2.35642
2.71828
3.13571
3.61725
4.17273
1.77079
2.04273
2.35642
2.71828
3.13571
3.61725
4.17273
4.81352
2.04273
2.35642
2.71828
3.13571
3.61725
4.17273
4.81352
5.55271
2.35642
2.71828
3.13571
3.61725
4.17273
4.81352
5.55271
6.40541
2.71828
3.13571
3.61725
4.17273
4.81352
5.55271
6.40541
7.38906
