# vtk DataFile Version 3.0
Laplacian Solver Output
ASCII
DATASET STRUCTURED_GRID
DIMENSIONS 8 8 1
POINTS 64 double
0 0 0.0
0.142857 0 0.0
0.285714 0 0.0
0.428571 0 0.0
0.571429 0 0.0
0.714286 0 0.0
0.857143 0 0.0
1 0 0.0
0 0.142857 0.0
0.142857 0.142857 0.0
0.285714 0.142857 0.0
0.428571 0.142857 0.0
0.571429 0.142857 0.0
0.714286 0.142857 0.0
0.857143 0.142857 0.0
1 0.142857 0.0
0 0.285714 0.0
0.142857 0.285714 0.0
0.285714 0.285714 0.0
0.428571 0.285714 0.0
0.571429 0.285714 0.0
0.714286 0.285714 0.0
0.857143 0.285714 0.0
1 0.285714 0.0
0 0.428571 0.0
0.142857 0.428571 0.0
0.285714 0.428571 0.0
0.428571 0.428571 0.0
0.571429 0.428571 0.0
0.714286 0.428571 0.0
0.857143 0.428571 0.0
1 0.428571 0.0
0 0.571429 0.0
0.142857 0.571429 0.0
0.285714 0.571429 0.0
0.428571 0.571429 0.0
0.571429 0.571429 0.0
0.714286 0.571429 0.0
0.857143 0.571429 0.0
1 0.571429 0.0
0 0.714286 0.0
0.142857 0.714286 0.0
0.285714 0.714286 0.0
0.428571 0.714286 0.0
0.571429 0.714286 0.0
0.714286 0.714286 0.0
0.857143 0.714286 0.0
1 0.714286 0.0
0 0.857143 0.0
0.142857 0.857143 0.0
0.285714 0.857143 0.0
0.428571 0.857143 0.0
0.571429 0.857143 0.0
0.714286 0.857143 0.0
0.857143 0.857143 0.0
1 0.857143 0.0
0 1 0.0
0.142857 1 0.0
0.285714 1 0.0
0.428571 1 0.0
0.571429 1 0.0
0.714286 1 0.0
0.857143 1 0.0
1 1 0.0
POINT_DATA 64
SCALARS Numerical_Solution float 1
LOOKUP_TABLE default
1.00189
1.15522
1.3321
1.53615
1.77152
2.043
2.35609
2.71709
1.15522
1.33202
1.53598
1.77126
2.04267
2.35574
2.71681
3.13323
1.3321
1.53598
1.77119
2.04253
2.35556
2.71664
3.13315
3.61356
1.53615
1.77126
2.04253
2.3555
2.71656
3.13308
3.61356
4.16782
1.77152
2.04267
2.35556
2.71656
3.13306
3.61355
4.16785
4.80728
2.043
2.35574
2.71664
3.13308
3.61355
4.16785
4.80731
5.545
2.35609
2.71681
3.13315
3.61356
4.16785
4.80731
5.54503
6.39606
2.71709
3.13323
3.61356
4.16782
4.80728
5.545
6.39606
7.37784
SCALARS Exact_Solution float 1
LOOKUP_TABLE default
1
1.15356
1.33071
1.53506
1.77079
2.04273
2.35642
2.71828
1.15356
1.33071
1.53506
1.77079
2.04273
2.35642
2.71828
3.13571
1.33071
1.53506
1.77079
2.04273
2.35642
2.71828
3.13571
3.61725
1.53506
1.77079
2.04273
2.35642
2.71828
3.13571
3.61725
4.17273
1.77079
2.04273
2.35642
2.71828
3.13571
3.61725
4.17273
4.81352
2.04273
2.35642
2.71828
3.13571
3.61725
4.17273
4.81352
5.55271
2.35642
2.71828
3.13571
3.61725
4.17273
4.81352
5.55271
6.40541
2.71828
3.13571
3.61725
4.17273
4.81352
5.55271
6.40541
7.38906
