# vtk DataFile Version 3.0
Laplacian Solver Output
ASCII
DATASET STRUCTURED_GRID
DIMENSIONS 10 10 1
POINTS 100 double
0 0 0.0
0.111111 0 0.0
0.222222 0 0.0
0.333333 0 0.0
0.444444 0 0.0
0.555556 0 0.0
0.666667 0 0.0
0.777778 0 0.0
0.888889 0 0.0
1 0 0.0
0 0.111111 0.0
0.111111 0.111111 0.0
0.222222 0.111111 0.0
0.333333 0.111111 0.0
0.444444 0.111111 0.0
0.555556 0.111111 0.0
0.666667 0.111111 0.0
0.777778 0.111111 0.0
0.888889 0.111111 0.0
1 0.111111 0.0
0 0.222222 0.0
0.111111 0.222222 0.0
0.222222 0.222222 0.0
0.333333 0.222222 0.0
0.444444 0.222222 0.0
0.555556 0.222222 0.0
0.666667 0.222222 0.0
0.777778 0.222222 0.0
0.888889 0.222222 0.0
1 0.222222 0.0
0 0 0.0
0 0 0.0
0 0 0.0
0 0 0.0
0 0 0.0
0 0 0.0
0 0 0.0
0 0 0.0
0 0 0.0
0 0 0.0
0 0 0.0
0 0 0.0
0 0 0.0
0 0 0.0
0 0 0.0
0 0 0.0
0 0 0.0
0 0 0.0
0 0 0.0
0 0 0.0
0 0 0.0
0 0 0.0
0 0 0.0
0 0 0.0
0 0 0.0
0 0 0.0
0 0 0.0
0 0 0.0
0 0 0.0
0 0 0.0
0 0 0.0
0 0 0.0
0 0 0.0
0 0 0.0
0 0 0.0
0 0 0.0
0 0 0.0
0 0 0.0
0 0 0.0
0 0 0.0
0 0 0.0
0 0 0.0
0 0 0.0
0 0 0.0
0 0 0.0
0 0 0.0
0 0 0.0
0 0 0.0
0 0 0.0
0 0 0.0
0 0 0.0
0 0 0.0
0 0 0.0
0 0 0.0
0 0 0.0
0 0 0.0
0 0 0.0
0 0 0.0
0 0 0.0
0 0 0.0
0 0 0.0
0 0 0.0
0 0 0.0
0 0 0.0
0 0 0.0
0 0 0.0
0 0 0.0
0 0 0.0
0 0 0.0
0 0 0.0
POINT_DATA 100
SCALARS Numerical_Solution float 1
LOOKUP_TABLE default
0
0
0
0
0
0
0
0
0
0
0
0
0
0
0
0
0
0
0
0
0
0
0
0
0
0
0
0
0
0
0
0
0
0
0
0
0
0
0
0
0
0
0
0
0
0
0
0
0
0
0
0
0
0
0
0
0
0
0
0
0
0
0
0
0
0
0
0
0
0
0
0
0
0
0
0
0
0
0
0
0
0
0
0
0
0
0
0
0
0
0
0
0
0
0
0
0
0
0
0
SCALARS Exact_Solution float 1
LOOKUP_TABLE default
1
1.11111
1.22222
1.33333
1.44444
1.55556
1.66667
1.77778
1.88889
2
1.11111
1.22497
1.34156
1.46091
1.58299
1.70782
1.83539
1.96571
2.09877
2.23457
1.22222
1.34156
1.46639
1.59671
1.73251
1.8738
2.02058
2.17284
2.33059
2.49383
1
1
1
1
1
1
1
1
1
1
1
1
1
1
1
1
1
1
1
1
1
1
1
1
1
1
1
1
1
1
1
1
1
1
1
1
1
1
1
1
1
1
1
1
1
1
1
1
1
1
1
1
1
1
1
1
1
1
1
1
1
1
1
1
1
1
1
1
1
1
