# vtk DataFile Version 3.0
Laplacian Solver Output
ASCII
DATASET STRUCTURED_GRID
DIMENSIONS 10 10 1
POINTS 100 double
0 0 0.0
0.111111 0 0.0
0.222222 0 0.0
0.333333 0 0.0
0.444444 0 0.0
0.555556 0 0.0
0.666667 0 0.0
0.777778 0 0.0
0.888889 0 0.0
1 0 0.0
0 0.111111 0.0
0.111111 0.111111 0.0
0.222222 0.111111 0.0
0.333333 0.111111 0.0
0.444444 0.111111 0.0
0.555556 0.111111 0.0
0.666667 0.111111 0.0
0.777778 0.111111 0.0
0.888889 0.111111 0.0
1 0.111111 0.0
0 0.222222 0.0
0.111111 0.222222 0.0
0.222222 0.222222 0.0
0.333333 0.222222 0.0
0.444444 0.222222 0.0
0.555556 0.222222 0.0
0.666667 0.222222 0.0
0.777778 0.222222 0.0
0.888889 0.222222 0.0
1 0.222222 0.0
0 0.333333 0.0
0.111111 0.333333 0.0
0.222222 0.333333 0.0
0.333333 0.333333 0.0
0.444444 0.333333 0.0
0.555556 0.333333 0.0
0.666667 0.333333 0.0
0.777778 0.333333 0.0
0.888889 0.333333 0.0
1 0.333333 0.0
0 0.444444 0.0
0.111111 0.444444 0.0
0.222222 0.444444 0.0
0.333333 0.444444 0.0
0.444444 0.444444 0.0
0.555556 0.444444 0.0
0.666667 0.444444 0.0
0.777778 0.444444 0.0
0.888889 0.444444 0.0
1 0.444444 0.0
0 0.555556 0.0
0.111111 0.555556 0.0
0.222222 0.555556 0.0
0.333333 0.555556 0.0
0.444444 0.555556 0.0
0.555556 0.555556 0.0
0.666667 0.555556 0.0
0.777778 0.555556 0.0
0.888889 0.555556 0.0
1 0.555556 0.0
0 0.666667 0.0
0.111111 0.666667 0.0
0.222222 0.666667 0.0
0.333333 0.666667 0.0
0.444444 0.666667 0.0
0.555556 0.666667 0.0
0.666667 0.666667 0.0
0.777778 0.666667 0.0
0.888889 0.666667 0.0
1 0.666667 0.0
0 0.777778 0.0
0.111111 0.777778 0.0
0.222222 0.777778 0.0
0.333333 0.777778 0.0
0.444444 0.777778 0.0
0.555556 0.777778 0.0
0.666667 0.777778 0.0
0.777778 0.777778 0.0
0.888889 0.777778 0.0
1 0.777778 0.0
0 0.888889 0.0
0.111111 0.888889 0.0
0.222222 0.888889 0.0
0.333333 0.888889 0.0
0.444444 0.888889 0.0
0.555556 0.888889 0.0
0.666667 0.888889 0.0
0.777778 0.888889 0.0
0.888889 0.888889 0.0
1 0.888889 0.0
0 1 0.0
0.111111 1 0.0
0.222222 1 0.0
0.333333 1 0.0
0.444444 1 0.0
0.555556 1 0.0
0.666667 1 0.0
0.777778 1 0.0
0.888889 1 0.0
1 1 0.0
POINT_DATA 100
SCALARS Numerical_Solution float 1
LOOKUP_TABLE default
1.01022
0.949292
0.77387
0.505108
0.175422
-0.175422
-0.505108
-0.77387
-0.949292
-1.01022
0.949292
0.892043
0.7272
0.474646
0.164843
-0.164843
-0.474646
-0.7272
-0.892043
-0.949292
0.77387
0.7272
0.592819
0.386935
0.134381
-0.134381
-0.386935
-0.592819
-0.7272
-0.77387
0.505108
0.474646
0.386935
0.252554
0.087711
-0.087711
-0.252554
-0.386935
-0.474646
-0.505108
0.175422
0.164843
0.134381
0.087711
0.0304617
-0.0304617
-0.087711
-0.134381
-0.164843
-0.175422
-0.175422
-0.164843
-0.134381
-0.087711
-0.0304617
0.0304617
0.087711
0.134381
0.164843
0.175422
-0.505108
-0.474646
-0.386935
-0.252554
-0.087711
0.087711
0.252554
0.386935
0.474646
0.505108
-0.77387
-0.7272
-0.592819
-0.386935
-0.134381
0.134381
0.386935
0.592819
0.7272
0.77387
-0.949292
-0.892043
-0.7272
-0.474646
-0.164843
0.164843
0.474646
0.7272
0.892043
0.949292
-1.01022
-0.949292
-0.77387
-0.505108
-0.175422
0.175422
0.505108
0.77387
0.949292
1.01022
SCALARS Exact_Solution float 1
LOOKUP_TABLE default
1
0.939693
0.766044
0.5
0.173648
-0.173648
-0.5
-0.766044
-0.939693
-1
0.939693
0.883022
0.719846
0.469846
0.163176
-0.163176
-0.469846
-0.719846
-0.883022
-0.939693
0.766044
0.719846
0.586824
0.383022
0.133022
-0.133022
-0.383022
-0.586824
-0.719846
-0.766044
0.5
0.469846
0.383022
0.25
0.0868241
-0.0868241
-0.25
-0.383022
-0.469846
-0.5
0.173648
0.163176
0.133022
0.0868241
0.0301537
-0.0301537
-0.0868241
-0.133022
-0.163176
-0.173648
-0.173648
-0.163176
-0.133022
-0.0868241
-0.0301537
0.0301537
0.0868241
0.133022
0.163176
0.173648
-0.5
-0.469846
-0.383022
-0.25
-0.0868241
0.0868241
0.25
0.383022
0.469846
0.5
-0.766044
-0.719846
-0.586824
-0.383022
-0.133022
0.133022
0.383022
0.586824
0.719846
0.766044
-0.939693
-0.883022
-0.719846
-0.469846
-0.163176
0.163176
0.469846
0.719846
0.883022
0.939693
-1
-0.939693
-0.766044
-0.5
-0.173648
0.173648
0.5
0.766044
0.939693
1
