# vtk DataFile Version 3.0
Laplacian Solver Output
ASCII
DATASET STRUCTURED_GRID
DIMENSIONS 10 10 1
POINTS 100 double
0 0 0.0
0.111111 0 0.0
0.222222 0 0.0
0.333333 0 0.0
0.444444 0 0.0
0.555556 0 0.0
0.666667 0 0.0
0.777778 0 0.0
0.888889 0 0.0
1 0 0.0
0 0.111111 0.0
0.111111 0.111111 0.0
0.222222 0.111111 0.0
0.333333 0.111111 0.0
0.444444 0.111111 0.0
0.555556 0.111111 0.0
0.666667 0.111111 0.0
0.777778 0.111111 0.0
0.888889 0.111111 0.0
1 0.111111 0.0
0 0.222222 0.0
0.111111 0.222222 0.0
0.222222 0.222222 0.0
0.333333 0.222222 0.0
0.444444 0.222222 0.0
0.555556 0.222222 0.0
0.666667 0.222222 0.0
0.777778 0.222222 0.0
0.888889 0.222222 0.0
1 0.222222 0.0
0 0.333333 0.0
0.111111 0.333333 0.0
0.222222 0.333333 0.0
0.333333 0.333333 0.0
0.444444 0.333333 0.0
0.555556 0.333333 0.0
0.666667 0.333333 0.0
0.777778 0.333333 0.0
0.888889 0.333333 0.0
1 0.333333 0.0
0 0.444444 0.0
0.111111 0.444444 0.0
0.222222 0.444444 0.0
0.333333 0.444444 0.0
0.444444 0.444444 0.0
0.555556 0.444444 0.0
0.666667 0.444444 0.0
0.777778 0.444444 0.0
0.888889 0.444444 0.0
1 0.444444 0.0
0 0.555556 0.0
0.111111 0.555556 0.0
0.222222 0.555556 0.0
0.333333 0.555556 0.0
0.444444 0.555556 0.0
0.555556 0.555556 0.0
0.666667 0.555556 0.0
0.777778 0.555556 0.0
0.888889 0.555556 0.0
1 0.555556 0.0
0 0.666667 0.0
0.111111 0.666667 0.0
0.222222 0.666667 0.0
0.333333 0.666667 0.0
0.444444 0.666667 0.0
0.555556 0.666667 0.0
0.666667 0.666667 0.0
0.777778 0.666667 0.0
0.888889 0.666667 0.0
1 0.666667 0.0
0 0.777778 0.0
0.111111 0.777778 0.0
0.222222 0.777778 0.0
0.333333 0.777778 0.0
0.444444 0.777778 0.0
0.555556 0.777778 0.0
0.666667 0.777778 0.0
0.777778 0.777778 0.0
0.888889 0.777778 0.0
1 0.777778 0.0
0 0.888889 0.0
0.111111 0.888889 0.0
0.222222 0.888889 0.0
0.333333 0.888889 0.0
0.444444 0.888889 0.0
0.555556 0.888889 0.0
0.666667 0.888889 0.0
0.777778 0.888889 0.0
0.888889 0.888889 0.0
1 0.888889 0.0
0 1 0.0
0.111111 1 0.0
0.222222 1 0.0
0.333333 1 0.0
0.444444 1 0.0
0.555556 1 0.0
0.666667 1 0.0
0.777778 1 0.0
0.888889 1 0.0
1 1 0.0
POINT_DATA 100
SCALARS Numerical_Solution float 1
LOOKUP_TABLE default
1.01022
0.949295
0.773872
0.505109
0.175423
-0.175423
-0.505109
-0.773872
-0.949295
-1.01022
0.949295
0.892046
0.727202
0.474648
0.164843
-0.164843
-0.474648
-0.727202
-0.892046
-0.949295
0.773873
0.727203
0.592821
0.386937
0.134382
-0.134382
-0.386937
-0.592821
-0.727203
-0.773873
0.505111
0.474649
0.386938
0.252556
0.0877116
-0.0877116
-0.252556
-0.386938
-0.474649
-0.505111
0.175426
0.164846
0.134384
0.0877128
0.0304623
-0.0304623
-0.0877128
-0.134384
-0.164846
-0.175426
-0.175418
-0.164839
-0.134378
-0.0877092
-0.0304611
0.0304611
0.0877092
0.134378
0.164839
0.175418
-0.505104
-0.474642
-0.386932
-0.252552
-0.0877104
0.0877104
0.252552
0.386932
0.474642
0.505104
-0.773866
-0.727196
-0.592816
-0.386933
-0.13438
0.13438
0.386933
0.592816
0.727196
0.773866
-0.949287
-0.892038
-0.727196
-0.474644
-0.164842
0.164842
0.474644
0.727196
0.892038
0.949287
-1.01021
-0.949288
-0.773866
-0.505105
-0.175421
0.175421
0.505105
0.773866
0.949288
1.01021
SCALARS Exact_Solution float 1
LOOKUP_TABLE default
1
0.939693
0.766044
0.5
0.173648
-0.173648
-0.5
-0.766044
-0.939693
-1
0.939693
0.883022
0.719846
0.469846
0.163176
-0.163176
-0.469846
-0.719846
-0.883022
-0.939693
0.766044
0.719846
0.586824
0.383022
0.133022
-0.133022
-0.383022
-0.586824
-0.719846
-0.766044
0.5
0.469846
0.383022
0.25
0.0868241
-0.0868241
-0.25
-0.383022
-0.469846
-0.5
0.173648
0.163176
0.133022
0.0868241
0.0301537
-0.0301537
-0.0868241
-0.133022
-0.163176
-0.173648
-0.173648
-0.163176
-0.133022
-0.0868241
-0.0301537
0.0301537
0.0868241
0.133022
0.163176
0.173648
-0.5
-0.469846
-0.383022
-0.25
-0.0868241
0.0868241
0.25
0.383022
0.469846
0.5
-0.766044
-0.719846
-0.586824
-0.383022
-0.133022
0.133022
0.383022
0.586824
0.719846
0.766044
-0.939693
-0.883022
-0.719846
-0.469846
-0.163176
0.163176
0.469846
0.719846
0.883022
0.939693
-1
-0.939693
-0.766044
-0.5
-0.173648
0.173648
0.5
0.766044
0.939693
1
