# vtk DataFile Version 3.0
Laplacian Solver Output
ASCII
DATASET STRUCTURED_GRID
DIMENSIONS 8 8 1
POINTS 64 double
0 0 0.0
0.142857 0 0.0
0.285714 0 0.0
0.428571 0 0.0
0.571429 0 0.0
0.714286 0 0.0
0.857143 0 0.0
1 0 0.0
0 0.142857 0.0
0.142857 0.142857 0.0
0.285714 0.142857 0.0
0.428571 0.142857 0.0
0.571429 0.142857 0.0
0.714286 0.142857 0.0
0.857143 0.142857 0.0
1 0.142857 0.0
0 0.285714 0.0
0.142857 0.285714 0.0
0.285714 0.285714 0.0
0.428571 0.285714 0.0
0.571429 0.285714 0.0
0.714286 0.285714 0.0
0.857143 0.285714 0.0
1 0.285714 0.0
0 0.428571 0.0
0.142857 0.428571 0.0
0.285714 0.428571 0.0
0.428571 0.428571 0.0
0.571429 0.428571 0.0
0.714286 0.428571 0.0
0.857143 0.428571 0.0
1 0.428571 0.0
0 0.571429 0.0
0.142857 0.571429 0.0
0.285714 0.571429 0.0
0.428571 0.571429 0.0
0.571429 0.571429 0.0
0.714286 0.571429 0.0
0.857143 0.571429 0.0
1 0.571429 0.0
0 0.714286 0.0
0.142857 0.714286 0.0
0.285714 0.714286 0.0
0.428571 0.714286 0.0
0.571429 0.714286 0.0
0.714286 0.714286 0.0
0.857143 0.714286 0.0
1 0.714286 0.0
0 0.857143 0.0
0.142857 0.857143 0.0
0.285714 0.857143 0.0
0.428571 0.857143 0.0
0.571429 0.857143 0.0
0.714286 0.857143 0.0
0.857143 0.857143 0.0
1 0.857143 0.0
0 1 0.0
0.142857 1 0.0
0.285714 1 0.0
0.428571 1 0.0
0.571429 1 0.0
0.714286 1 0.0
0.857143 1 0.0
1 1 0.0
POINT_DATA 64
SCALARS Numerical_Solution float 1
LOOKUP_TABLE default
1.14989
1.31416
1.5022
1.71758
1.96415
2.24603
2.56749
2.92931
1.31416
1.5019
1.7168
1.96295
2.24474
2.56689
2.93427
3.35142
1.5022
1.7168
1.9628
2.24494
2.56836
2.9387
3.36225
3.84628
1.71758
1.96295
2.24494
2.56905
2.94124
3.36824
3.85773
4.4187
1.96415
2.24474
2.56836
2.94124
3.37027
3.86329
4.42938
5.07909
2.24603
2.56689
2.9387
3.36824
3.86329
4.43293
5.08772
5.83993
2.56749
2.93427
3.36225
3.85773
4.42938
5.08772
5.84511
6.71582
2.92931
3.35142
3.84628
4.4187
5.07909
5.83993
6.71582
7.72361
SCALARS Exact_Solution float 1
LOOKUP_TABLE default
1
1.15356
1.33071
1.53506
1.77079
2.04273
2.35642
2.71828
1.15356
1.33071
1.53506
1.77079
2.04273
2.35642
2.71828
3.13571
1.33071
1.53506
1.77079
2.04273
2.35642
2.71828
3.13571
3.61725
1.53506
1.77079
2.04273
2.35642
2.71828
3.13571
3.61725
4.17273
1.77079
2.04273
2.35642
2.71828
3.13571
3.61725
4.17273
4.81352
2.04273
2.35642
2.71828
3.13571
3.61725
4.17273
4.81352
5.55271
2.35642
2.71828
3.13571
3.61725
4.17273
4.81352
5.55271
6.40541
2.71828
3.13571
3.61725
4.17273
4.81352
5.55271
6.40541
7.38906
