# vtk DataFile Version 3.0
Laplacian Solver Output
ASCII
DATASET STRUCTURED_GRID
DIMENSIONS 10 10 1
POINTS 100 double
0 0 0.0
0.111111 0 0.0
0.222222 0 0.0
0.333333 0 0.0
0.444444 0 0.0
0.555556 0 0.0
0.666667 0 0.0
0.777778 0 0.0
0.888889 0 0.0
1 0 0.0
0 0.111111 0.0
0.111111 0.111111 0.0
0.222222 0.111111 0.0
0.333333 0.111111 0.0
0.444444 0.111111 0.0
0.555556 0.111111 0.0
0.666667 0.111111 0.0
0.777778 0.111111 0.0
0.888889 0.111111 0.0
1 0.111111 0.0
0 0.222222 0.0
0.111111 0.222222 0.0
0.222222 0.222222 0.0
0.333333 0.222222 0.0
0.444444 0.222222 0.0
0.555556 0.222222 0.0
0.666667 0.222222 0.0
0.777778 0.222222 0.0
0.888889 0.222222 0.0
1 0.222222 0.0
0 0.333333 0.0
0.111111 0.333333 0.0
0.222222 0.333333 0.0
0.333333 0.333333 0.0
0.444444 0.333333 0.0
0.555556 0.333333 0.0
0.666667 0.333333 0.0
0.777778 0.333333 0.0
0.888889 0.333333 0.0
1 0.333333 0.0
0 0.444444 0.0
0.111111 0.444444 0.0
0.222222 0.444444 0.0
0.333333 0.444444 0.0
0.444444 0.444444 0.0
0.555556 0.444444 0.0
0.666667 0.444444 0.0
0.777778 0.444444 0.0
0.888889 0.444444 0.0
1 0.444444 0.0
0 0.555556 0.0
0.111111 0.555556 0.0
0.222222 0.555556 0.0
0.333333 0.555556 0.0
0.444444 0.555556 0.0
0.555556 0.555556 0.0
0.666667 0.555556 0.0
0.777778 0.555556 0.0
0.888889 0.555556 0.0
1 0.555556 0.0
0 0.666667 0.0
0.111111 0.666667 0.0
0.222222 0.666667 0.0
0.333333 0.666667 0.0
0.444444 0.666667 0.0
0.555556 0.666667 0.0
0.666667 0.666667 0.0
0.777778 0.666667 0.0
0.888889 0.666667 0.0
1 0.666667 0.0
0 0.777778 0.0
0.111111 0.777778 0.0
0.222222 0.777778 0.0
0.333333 0.777778 0.0
0.444444 0.777778 0.0
0.555556 0.777778 0.0
0.666667 0.777778 0.0
0.777778 0.777778 0.0
0.888889 0.777778 0.0
1 0.777778 0.0
0 0.888889 0.0
0.111111 0.888889 0.0
0.222222 0.888889 0.0
0.333333 0.888889 0.0
0.444444 0.888889 0.0
0.555556 0.888889 0.0
0.666667 0.888889 0.0
0.777778 0.888889 0.0
0.888889 0.888889 0.0
1 0.888889 0.0
0 1 0.0
0.111111 1 0.0
0.222222 1 0.0
0.333333 1 0.0
0.444444 1 0.0
0.555556 1 0.0
0.666667 1 0.0
0.777778 1 0.0
0.888889 1 0.0
1 1 0.0
POINT_DATA 100
SCALARS Numerical_Solution float 1
LOOKUP_TABLE default
67.2503
67.3607
67.4752
67.5883
67.7052
67.8202
67.9382
68.0534
68.1703
68.2807
67.3607
67.4752
67.5911
67.7138
67.8376
67.9676
68.0981
68.2338
68.3685
68.5064
67.4752
67.5911
67.7168
67.8465
67.9856
68.1284
68.28
68.4344
68.5966
68.7605
67.5883
67.7138
67.8465
67.9917
68.1437
68.3079
68.4783
68.6601
68.8475
69.0458
67.7052
67.8376
67.9856
68.1437
68.3172
68.5002
68.6981
68.905
69.1261
69.3559
67.8202
67.9676
68.1284
68.3079
68.5002
68.7107
68.9336
69.174
69.4263
69.6958
67.9382
68.0981
68.28
68.4783
68.6981
68.9336
69.1899
69.4612
69.753
70.0596
68.0534
68.2338
68.4344
68.6601
68.905
69.174
69.4612
69.772
70.1007
70.4525
68.1703
68.3685
68.5966
68.8475
69.1261
69.4263
69.753
70.1007
70.4745
70.8688
68.2807
68.5064
68.7605
69.0458
69.3559
69.6958
70.0596
70.4525
70.8688
71.314
SCALARS Exact_Solution float 1
LOOKUP_TABLE default
1
1.11111
1.22222
1.33333
1.44444
1.55556
1.66667
1.77778
1.88889
2
1.11111
1.22497
1.34156
1.46091
1.58299
1.70782
1.83539
1.96571
2.09877
2.23457
1.22222
1.34156
1.46639
1.59671
1.73251
1.8738
2.02058
2.17284
2.33059
2.49383
1.33333
1.46091
1.59671
1.74074
1.893
2.0535
2.22222
2.39918
2.58436
2.77778
1.44444
1.58299
1.73251
1.893
2.06447
2.24691
2.44033
2.64472
2.86008
3.08642
1.55556
1.70782
1.8738
2.0535
2.24691
2.45405
2.6749
2.90947
3.15775
3.41975
1.66667
1.83539
2.02058
2.22222
2.44033
2.6749
2.92593
3.19342
3.47737
3.77778
1.77778
1.96571
2.17284
2.39918
2.64472
2.90947
3.19342
3.49657
3.81893
4.16049
1.88889
2.09877
2.33059
2.58436
2.86008
3.15775
3.47737
3.81893
4.18244
4.5679
2
2.23457
2.49383
2.77778
3.08642
3.41975
3.77778
4.16049
4.5679
5
