# vtk DataFile Version 3.0
Laplacian Solver Output
ASCII
DATASET STRUCTURED_GRID
DIMENSIONS 10 10 1
POINTS 100 double
0 0 0.0
0.111111 0 0.0
0.222222 0 0.0
0.333333 0 0.0
0.444444 0 0.0
0.555556 0 0.0
0.666667 0 0.0
0.777778 0 0.0
0.888889 0 0.0
1 0 0.0
0 0.111111 0.0
0.111111 0.111111 0.0
0.222222 0.111111 0.0
0.333333 0.111111 0.0
0.444444 0.111111 0.0
0.555556 0.111111 0.0
0.666667 0.111111 0.0
0.777778 0.111111 0.0
0.888889 0.111111 0.0
1 0.111111 0.0
0 0.222222 0.0
0.111111 0.222222 0.0
0.222222 0.222222 0.0
0.333333 0.222222 0.0
0.444444 0.222222 0.0
0.555556 0.222222 0.0
0.666667 0.222222 0.0
0.777778 0.222222 0.0
0.888889 0.222222 0.0
1 0.222222 0.0
0 0.333333 0.0
0.111111 0.333333 0.0
0.222222 0.333333 0.0
0.333333 0.333333 0.0
0.444444 0.333333 0.0
0.555556 0.333333 0.0
0.666667 0.333333 0.0
0.777778 0.333333 0.0
0.888889 0.333333 0.0
1 0.333333 0.0
0 0.444444 0.0
0.111111 0.444444 0.0
0.222222 0.444444 0.0
0.333333 0.444444 0.0
0.444444 0.444444 0.0
0.555556 0.444444 0.0
0.666667 0.444444 0.0
0.777778 0.444444 0.0
0.888889 0.444444 0.0
1 0.444444 0.0
0 0.555556 0.0
0.111111 0.555556 0.0
0.222222 0.555556 0.0
0.333333 0.555556 0.0
0.444444 0.555556 0.0
0.555556 0.555556 0.0
0.666667 0.555556 0.0
0.777778 0.555556 0.0
0.888889 0.555556 0.0
1 0.555556 0.0
0 0.666667 0.0
0.111111 0.666667 0.0
0.222222 0.666667 0.0
0.333333 0.666667 0.0
0.444444 0.666667 0.0
0.555556 0.666667 0.0
0.666667 0.666667 0.0
0.777778 0.666667 0.0
0.888889 0.666667 0.0
1 0.666667 0.0
0 0.777778 0.0
0.111111 0.777778 0.0
0.222222 0.777778 0.0
0.333333 0.777778 0.0
0.444444 0.777778 0.0
0.555556 0.777778 0.0
0.666667 0.777778 0.0
0.777778 0.777778 0.0
0.888889 0.777778 0.0
1 0.777778 0.0
0 0.888889 0.0
0.111111 0.888889 0.0
0.222222 0.888889 0.0
0.333333 0.888889 0.0
0.444444 0.888889 0.0
0.555556 0.888889 0.0
0.666667 0.888889 0.0
0.777778 0.888889 0.0
0.888889 0.888889 0.0
1 0.888889 0.0
0 1 0.0
0.111111 1 0.0
0.222222 1 0.0
0.333333 1 0.0
0.444444 1 0.0
0.555556 1 0.0
0.666667 1 0.0
0.777778 1 0.0
0.888889 1 0.0
1 1 0.0
POINT_DATA 100
SCALARS Numerical_Solution float 1
LOOKUP_TABLE default
1.11643
1.24048
1.3784
1.53184
1.70254
1.89239
2.10339
2.33767
2.59739
2.88287
1.24048
1.37831
1.53156
1.70205
1.89171
2.10265
2.3371
2.59742
2.88598
3.20493
1.3784
1.53156
1.70194
1.89158
2.10265
2.33751
2.59869
2.88897
3.21132
3.56913
1.53184
1.70205
1.89158
2.10271
2.33789
2.59977
2.89126
3.21555
3.57621
3.97732
1.70254
1.89171
2.10265
2.33789
2.60018
2.8925
3.21814
3.58076
3.98448
4.43393
1.89239
2.10265
2.33751
2.59977
2.8925
3.21902
3.58304
3.98871
4.44067
4.94415
2.10339
2.3371
2.59869
2.89126
3.21814
3.58304
3.99013
4.44405
4.95003
5.51392
2.33767
2.59742
2.88897
3.21555
3.58076
3.98871
4.44405
4.952
5.51845
6.14994
2.59739
2.88598
3.21132
3.57621
3.98448
4.44067
4.95003
5.51845
6.15255
6.8597
2.88287
3.20493
3.56913
3.97732
4.43393
4.94415
5.51392
6.14994
6.8597
7.65154
SCALARS Exact_Solution float 1
LOOKUP_TABLE default
1
1.11752
1.24885
1.39561
1.55962
1.74291
1.94773
2.17663
2.43243
2.71828
1.11752
1.24885
1.39561
1.55962
1.74291
1.94773
2.17663
2.43243
2.71828
3.03773
1.24885
1.39561
1.55962
1.74291
1.94773
2.17663
2.43243
2.71828
3.03773
3.39472
1.39561
1.55962
1.74291
1.94773
2.17663
2.43243
2.71828
3.03773
3.39472
3.79367
1.55962
1.74291
1.94773
2.17663
2.43243
2.71828
3.03773
3.39472
3.79367
4.2395
1.74291
1.94773
2.17663
2.43243
2.71828
3.03773
3.39472
3.79367
4.2395
4.73772
1.94773
2.17663
2.43243
2.71828
3.03773
3.39472
3.79367
4.2395
4.73772
5.29449
2.17663
2.43243
2.71828
3.03773
3.39472
3.79367
4.2395
4.73772
5.29449
5.91669
2.43243
2.71828
3.03773
3.39472
3.79367
4.2395
4.73772
5.29449
5.91669
6.61202
2.71828
3.03773
3.39472
3.79367
4.2395
4.73772
5.29449
5.91669
6.61202
7.38906
