# vtk DataFile Version 3.0
Laplacian Solver Output
ASCII
DATASET STRUCTURED_GRID
DIMENSIONS 10 10 1
POINTS 100 double
0 0 0.0
0.111111 0 0.0
0.222222 0 0.0
0.333333 0 0.0
0.444444 0 0.0
0.555556 0 0.0
0.666667 0 0.0
0.777778 0 0.0
0.888889 0 0.0
1 0 0.0
0 0.111111 0.0
0.111111 0.111111 0.0
0.222222 0.111111 0.0
0.333333 0.111111 0.0
0.444444 0.111111 0.0
0.555556 0.111111 0.0
0.666667 0.111111 0.0
0.777778 0.111111 0.0
0.888889 0.111111 0.0
1 0.111111 0.0
0 0.222222 0.0
0.111111 0.222222 0.0
0.222222 0.222222 0.0
0.333333 0.222222 0.0
0.444444 0.222222 0.0
0.555556 0.222222 0.0
0.666667 0.222222 0.0
0.777778 0.222222 0.0
0.888889 0.222222 0.0
1 0.222222 0.0
0 0.333333 0.0
0.111111 0.333333 0.0
0.222222 0.333333 0.0
0.333333 0.333333 0.0
0.444444 0.333333 0.0
0.555556 0.333333 0.0
0.666667 0.333333 0.0
0.777778 0.333333 0.0
0.888889 0.333333 0.0
1 0.333333 0.0
0 0.444444 0.0
0.111111 0.444444 0.0
0.222222 0.444444 0.0
0.333333 0.444444 0.0
0.444444 0.444444 0.0
0.555556 0.444444 0.0
0.666667 0.444444 0.0
0.777778 0.444444 0.0
0.888889 0.444444 0.0
1 0.444444 0.0
0 0.555556 0.0
0.111111 0.555556 0.0
0.222222 0.555556 0.0
0.333333 0.555556 0.0
0.444444 0.555556 0.0
0.555556 0.555556 0.0
0.666667 0.555556 0.0
0.777778 0.555556 0.0
0.888889 0.555556 0.0
1 0.555556 0.0
0 0.666667 0.0
0.111111 0.666667 0.0
0.222222 0.666667 0.0
0.333333 0.666667 0.0
0.444444 0.666667 0.0
0.555556 0.666667 0.0
0.666667 0.666667 0.0
0.777778 0.666667 0.0
0.888889 0.666667 0.0
1 0.666667 0.0
0 0.777778 0.0
0.111111 0.777778 0.0
0.222222 0.777778 0.0
0.333333 0.777778 0.0
0.444444 0.777778 0.0
0.555556 0.777778 0.0
0.666667 0.777778 0.0
0.777778 0.777778 0.0
0.888889 0.777778 0.0
1 0.777778 0.0
0 0.888889 0.0
0.111111 0.888889 0.0
0.222222 0.888889 0.0
0.333333 0.888889 0.0
0.444444 0.888889 0.0
0.555556 0.888889 0.0
0.666667 0.888889 0.0
0.777778 0.888889 0.0
0.888889 0.888889 0.0
1 0.888889 0.0
0 1 0.0
0.111111 1 0.0
0.222222 1 0.0
0.333333 1 0.0
0.444444 1 0.0
0.555556 1 0.0
0.666667 1 0.0
0.777778 1 0.0
0.888889 1 0.0
1 1 0.0
POINT_DATA 100
SCALARS Numerical_Solution float 1
LOOKUP_TABLE default
1.11645
1.2405
1.37843
1.53186
1.70257
1.89241
2.10342
2.3377
2.59741
2.88289
1.2405
1.37833
1.53159
1.70207
1.89174
2.10268
2.33713
2.59744
2.88601
3.20495
1.37843
1.53159
1.70197
1.89161
2.10268
2.33753
2.59872
2.88899
3.21135
3.56916
1.53186
1.70207
1.89161
2.10274
2.33792
2.5998
2.89129
3.21558
3.57624
3.97735
1.70257
1.89174
2.10268
2.33792
2.60021
2.89253
3.21817
3.58079
3.9845
4.43395
1.89241
2.10268
2.33753
2.5998
2.89253
3.21905
3.58307
3.98874
4.4407
4.94417
2.10342
2.33713
2.59872
2.89129
3.21817
3.58307
3.99016
4.44408
4.95005
5.51394
2.3377
2.59744
2.88899
3.21558
3.58079
3.98874
4.44408
4.95203
5.51847
6.14996
2.59741
2.88601
3.21135
3.57624
3.9845
4.4407
4.95005
5.51847
6.15257
6.85972
2.88289
3.20495
3.56916
3.97735
4.43395
4.94417
5.51394
6.14996
6.85972
7.65156
SCALARS Exact_Solution float 1
LOOKUP_TABLE default
1
1.11752
1.24885
1.39561
1.55962
1.74291
1.94773
2.17663
2.43243
2.71828
1.11752
1.24885
1.39561
1.55962
1.74291
1.94773
2.17663
2.43243
2.71828
3.03773
1.24885
1.39561
1.55962
1.74291
1.94773
2.17663
2.43243
2.71828
3.03773
3.39472
1.39561
1.55962
1.74291
1.94773
2.17663
2.43243
2.71828
3.03773
3.39472
3.79367
1.55962
1.74291
1.94773
2.17663
2.43243
2.71828
3.03773
3.39472
3.79367
4.2395
1.74291
1.94773
2.17663
2.43243
2.71828
3.03773
3.39472
3.79367
4.2395
4.73772
1.94773
2.17663
2.43243
2.71828
3.03773
3.39472
3.79367
4.2395
4.73772
5.29449
2.17663
2.43243
2.71828
3.03773
3.39472
3.79367
4.2395
4.73772
5.29449
5.91669
2.43243
2.71828
3.03773
3.39472
3.79367
4.2395
4.73772
5.29449
5.91669
6.61202
2.71828
3.03773
3.39472
3.79367
4.2395
4.73772
5.29449
5.91669
6.61202
7.38906
