# vtk DataFile Version 3.0
Laplacian Solver Output
ASCII
DATASET STRUCTURED_GRID
DIMENSIONS 10 10 1
POINTS 100 double
0 0 0.0
0.111111 0 0.0
0.222222 0 0.0
0.333333 0 0.0
0.444444 0 0.0
0.555556 0 0.0
0.666667 0 0.0
0.777778 0 0.0
0.888889 0 0.0
1 0 0.0
0 0.111111 0.0
0.111111 0.111111 0.0
0.222222 0.111111 0.0
0.333333 0.111111 0.0
0.444444 0.111111 0.0
0.555556 0.111111 0.0
0.666667 0.111111 0.0
0.777778 0.111111 0.0
0.888889 0.111111 0.0
1 0.111111 0.0
0 0.222222 0.0
0.111111 0.222222 0.0
0.222222 0.222222 0.0
0.333333 0.222222 0.0
0.444444 0.222222 0.0
0.555556 0.222222 0.0
0.666667 0.222222 0.0
0.777778 0.222222 0.0
0.888889 0.222222 0.0
1 0.222222 0.0
0 0.333333 0.0
0.111111 0.333333 0.0
0.222222 0.333333 0.0
0.333333 0.333333 0.0
0.444444 0.333333 0.0
0.555556 0.333333 0.0
0.666667 0.333333 0.0
0.777778 0.333333 0.0
0.888889 0.333333 0.0
1 0.333333 0.0
0 0.444444 0.0
0.111111 0.444444 0.0
0.222222 0.444444 0.0
0.333333 0.444444 0.0
0.444444 0.444444 0.0
0.555556 0.444444 0.0
0.666667 0.444444 0.0
0.777778 0.444444 0.0
0.888889 0.444444 0.0
1 0.444444 0.0
0 0.555556 0.0
0.111111 0.555556 0.0
0.222222 0.555556 0.0
0.333333 0.555556 0.0
0.444444 0.555556 0.0
0.555556 0.555556 0.0
0.666667 0.555556 0.0
0.777778 0.555556 0.0
0.888889 0.555556 0.0
1 0.555556 0.0
0 0.666667 0.0
0.111111 0.666667 0.0
0.222222 0.666667 0.0
0.333333 0.666667 0.0
0.444444 0.666667 0.0
0.555556 0.666667 0.0
0.666667 0.666667 0.0
0.777778 0.666667 0.0
0.888889 0.666667 0.0
1 0.666667 0.0
0 0.777778 0.0
0.111111 0.777778 0.0
0.222222 0.777778 0.0
0.333333 0.777778 0.0
0.444444 0.777778 0.0
0.555556 0.777778 0.0
0.666667 0.777778 0.0
0.777778 0.777778 0.0
0.888889 0.777778 0.0
1 0.777778 0.0
0 0.888889 0.0
0.111111 0.888889 0.0
0.222222 0.888889 0.0
0.333333 0.888889 0.0
0.444444 0.888889 0.0
0.555556 0.888889 0.0
0.666667 0.888889 0.0
0.777778 0.888889 0.0
0.888889 0.888889 0.0
1 0.888889 0.0
0 1 0.0
0.111111 1 0.0
0.222222 1 0.0
0.333333 1 0.0
0.444444 1 0.0
0.555556 1 0.0
0.666667 1 0.0
0.777778 1 0.0
0.888889 1 0.0
1 1 0.0
POINT_DATA 100
SCALARS Numerical_Solution float 1
LOOKUP_TABLE default
-0.0246377
0.305958
0.635195
0.96175
1.28434
1.60175
1.91283
2.21653
2.51192
2.7986
0.417069
0.746702
1.07361
1.39651
1.71416
2.0254
2.32917
2.6245
2.9106
3.18686
0.857417
1.18472
1.50797
1.8259
2.13736
2.44126
2.73661
3.02255
3.29832
3.5633
1.29508
1.61873
1.93702
2.24875
2.55286
2.84834
3.1343
3.40999
3.67472
3.92797
1.72879
2.04749
2.35959
2.66397
2.95966
3.24576
3.52151
3.78624
4.03941
4.28061
2.15731
2.46985
2.77459
3.07056
3.35687
3.63276
3.89759
4.15084
4.39208
4.62105
2.5795
2.88473
3.18106
3.46764
3.74373
4.00871
4.26207
4.50343
4.73254
4.94925
2.99431
3.29117
3.57811
3.85443
4.11957
4.37306
4.61454
4.84379
5.06069
5.26527
3.40081
3.68837
3.96499
4.23028
4.48386
4.72542
4.95476
5.17181
5.3766
5.56932
3.7986
4.07574
4.34108
4.59464
4.83616
5.0655
5.28258
5.48749
5.68043
5.8617
SCALARS Exact_Solution float 1
LOOKUP_TABLE default
0
0.333105
0.664842
0.993861
1.31885
1.63853
1.9517
2.25725
2.55415
2.84147
0.444216
0.775953
1.10497
1.42996
1.74964
2.06281
2.36836
2.66526
2.95258
3.22953
0.887064
1.21608
1.54107
1.86075
2.17393
2.47948
2.77637
3.06369
3.34064
3.60653
1.32719
1.65218
1.97186
2.28504
2.59059
2.88748
3.1748
3.45175
3.71764
3.97194
1.76329
2.08297
2.39615
2.7017
2.99859
3.28592
3.56286
3.82875
4.08305
4.32536
2.19408
2.50726
2.81281
3.10971
3.39703
3.67397
3.93986
4.19416
4.43647
4.66655
2.61837
2.92392
3.22082
3.50814
3.78508
4.05097
4.30527
4.54758
4.77766
4.99541
3.03503
3.33193
3.61925
3.89619
4.16208
4.41638
4.65869
4.88877
5.10652
5.31199
3.44304
3.73036
4.0073
4.27319
4.52749
4.76981
4.99988
5.21763
5.4231
5.6165
3.84147
4.11841
4.38431
4.6386
4.88092
5.11099
5.32874
5.53421
5.72761
5.9093
