# vtk DataFile Version 3.0
Laplacian Solver Output
ASCII
DATASET STRUCTURED_GRID
DIMENSIONS 8 8 1
POINTS 64 double
0 0 0.0
0.142857 0 0.0
0.285714 0 0.0
0.428571 0 0.0
0.571429 0 0.0
0.714286 0 0.0
0.857143 0 0.0
1 0 0.0
0 0.142857 0.0
0.142857 0.142857 0.0
0.285714 0.142857 0.0
0.428571 0.142857 0.0
0.571429 0.142857 0.0
0.714286 0.142857 0.0
0.857143 0.142857 0.0
1 0.142857 0.0
0 0.285714 0.0
0.142857 0.285714 0.0
0.285714 0.285714 0.0
0.428571 0.285714 0.0
0.571429 0.285714 0.0
0.714286 0.285714 0.0
0.857143 0.285714 0.0
1 0.285714 0.0
0 0.428571 0.0
0.142857 0.428571 0.0
0.285714 0.428571 0.0
0.428571 0.428571 0.0
0.571429 0.428571 0.0
0.714286 0.428571 0.0
0.857143 0.428571 0.0
1 0.428571 0.0
0 0.571429 0.0
0.142857 0.571429 0.0
0.285714 0.571429 0.0
0.428571 0.571429 0.0
0.571429 0.571429 0.0
0.714286 0.571429 0.0
0.857143 0.571429 0.0
1 0.571429 0.0
0 0.714286 0.0
0.142857 0.714286 0.0
0.285714 0.714286 0.0
0.428571 0.714286 0.0
0.571429 0.714286 0.0
0.714286 0.714286 0.0
0.857143 0.714286 0.0
1 0.714286 0.0
0 0.857143 0.0
0.142857 0.857143 0.0
0.285714 0.857143 0.0
0.428571 0.857143 0.0
0.571429 0.857143 0.0
0.714286 0.857143 0.0
0.857143 0.857143 0.0
1 0.857143 0.0
0 1 0.0
0.142857 1 0.0
0.285714 1 0.0
0.428571 1 0.0
0.571429 1 0.0
0.714286 1 0.0
0.857143 1 0.0
1 1 0.0
POINT_DATA 64
SCALARS Numerical_Solution float 1
LOOKUP_TABLE default
1.01696
0.916247
0.634063
0.226294
-0.226294
-0.634063
-0.916247
-1.01696
0.916247
0.82551
0.571271
0.203884
-0.203884
-0.571271
-0.82551
-0.916247
0.634064
0.571272
0.395332
0.141092
-0.141092
-0.395332
-0.571272
-0.634064
0.226297
0.203886
0.141094
0.0503558
-0.0503558
-0.141094
-0.203886
-0.226297
-0.22629
-0.203881
-0.14109
-0.0503543
0.0503543
0.14109
0.203881
0.22629
-0.634057
-0.571266
-0.395328
-0.141091
0.141091
0.395328
0.571266
0.634057
-0.916241
-0.825505
-0.571267
-0.203883
0.203883
0.571267
0.825505
0.916241
-1.01695
-0.916241
-0.634059
-0.226293
0.226293
0.634059
0.916241
1.01695
SCALARS Exact_Solution float 1
LOOKUP_TABLE default
1
0.900969
0.62349
0.222521
-0.222521
-0.62349
-0.900969
-1
0.900969
0.811745
0.561745
0.200484
-0.200484
-0.561745
-0.811745
-0.900969
0.62349
0.561745
0.38874
0.13874
-0.13874
-0.38874
-0.561745
-0.62349
0.222521
0.200484
0.13874
0.0495156
-0.0495156
-0.13874
-0.200484
-0.222521
-0.222521
-0.200484
-0.13874
-0.0495156
0.0495156
0.13874
0.200484
0.222521
-0.62349
-0.561745
-0.38874
-0.13874
0.13874
0.38874
0.561745
0.62349
-0.900969
-0.811745
-0.561745
-0.200484
0.200484
0.561745
0.811745
0.900969
-1
-0.900969
-0.62349
-0.222521
0.222521
0.62349
0.900969
1
