# vtk DataFile Version 3.0
Laplacian Solver Output
ASCII
DATASET STRUCTURED_GRID
DIMENSIONS 10 10 1
POINTS 100 double
0 0 0.0
0.111111 0 0.0
0.222222 0 0.0
0.333333 0 0.0
0.444444 0 0.0
0.555556 0 0.0
0.666667 0 0.0
0.777778 0 0.0
0.888889 0 0.0
1 0 0.0
0 0.111111 0.0
0.111111 0.111111 0.0
0.222222 0.111111 0.0
0.333333 0.111111 0.0
0.444444 0.111111 0.0
0.555556 0.111111 0.0
0.666667 0.111111 0.0
0.777778 0.111111 0.0
0.888889 0.111111 0.0
1 0.111111 0.0
0 0.222222 0.0
0.111111 0.222222 0.0
0.222222 0.222222 0.0
0.333333 0.222222 0.0
0.444444 0.222222 0.0
0.555556 0.222222 0.0
0.666667 0.222222 0.0
0.777778 0.222222 0.0
0.888889 0.222222 0.0
1 0.222222 0.0
0 0.333333 0.0
0.111111 0.333333 0.0
0.222222 0.333333 0.0
0.333333 0.333333 0.0
0.444444 0.333333 0.0
0.555556 0.333333 0.0
0.666667 0.333333 0.0
0.777778 0.333333 0.0
0.888889 0.333333 0.0
1 0.333333 0.0
0 0.444444 0.0
0.111111 0.444444 0.0
0.222222 0.444444 0.0
0.333333 0.444444 0.0
0.444444 0.444444 0.0
0.555556 0.444444 0.0
0.666667 0.444444 0.0
0.777778 0.444444 0.0
0.888889 0.444444 0.0
1 0.444444 0.0
0 0.555556 0.0
0.111111 0.555556 0.0
0.222222 0.555556 0.0
0.333333 0.555556 0.0
0.444444 0.555556 0.0
0.555556 0.555556 0.0
0.666667 0.555556 0.0
0.777778 0.555556 0.0
0.888889 0.555556 0.0
1 0.555556 0.0
0 0.666667 0.0
0.111111 0.666667 0.0
0.222222 0.666667 0.0
0.333333 0.666667 0.0
0.444444 0.666667 0.0
0.555556 0.666667 0.0
0.666667 0.666667 0.0
0.777778 0.666667 0.0
0.888889 0.666667 0.0
1 0.666667 0.0
0 0.777778 0.0
0.111111 0.777778 0.0
0.222222 0.777778 0.0
0.333333 0.777778 0.0
0.444444 0.777778 0.0
0.555556 0.777778 0.0
0.666667 0.777778 0.0
0.777778 0.777778 0.0
0.888889 0.777778 0.0
1 0.777778 0.0
0 0.888889 0.0
0.111111 0.888889 0.0
0.222222 0.888889 0.0
0.333333 0.888889 0.0
0.444444 0.888889 0.0
0.555556 0.888889 0.0
0.666667 0.888889 0.0
0.777778 0.888889 0.0
0.888889 0.888889 0.0
1 0.888889 0.0
0 1 0.0
0.111111 1 0.0
0.222222 1 0.0
0.333333 1 0.0
0.444444 1 0.0
0.555556 1 0.0
0.666667 1 0.0
0.777778 1 0.0
0.888889 1 0.0
1 1 0.0
POINT_DATA 100
SCALARS Numerical_Solution float 1
LOOKUP_TABLE default
0
0
0
0
0
0
0
0
0
0
0
0.118172
0.222091
0.299222
0.340263
0.340263
0.299222
0.222091
0.118172
0
0
0.222091
0.417394
0.562353
0.639485
0.639485
0.562353
0.417394
0.222091
0
0
0.299222
0.562353
0.757657
0.861576
0.861576
0.757657
0.562353
0.299222
0
0
0.340263
0.639485
0.861576
0.979748
0.979748
0.861576
0.639485
0.340263
0
0
0.340263
0.639485
0.861576
0.979748
0.979748
0.861576
0.639485
0.340263
0
0
0.299222
0.562353
0.757657
0.861576
0.861576
0.757657
0.562353
0.299222
0
0
0.222091
0.417394
0.562353
0.639485
0.639485
0.562353
0.417394
0.222091
0
0
0.118172
0.222091
0.299222
0.340263
0.340263
0.299222
0.222091
0.118172
0
0
0
0
0
0
0
0
0
0
0
SCALARS Exact_Solution float 1
LOOKUP_TABLE default
0
0
0
0
0
0
0
0
0
0
0
0.116978
0.219846
0.296198
0.336824
0.336824
0.296198
0.219846
0.116978
4.18854e-17
0
0.219846
0.413176
0.55667
0.633022
0.633022
0.55667
0.413176
0.219846
7.87188e-17
0
0.296198
0.55667
0.75
0.852869
0.852869
0.75
0.55667
0.296198
1.06058e-16
0
0.336824
0.633022
0.852869
0.969846
0.969846
0.852869
0.633022
0.336824
1.20604e-16
0
0.336824
0.633022
0.852869
0.969846
0.969846
0.852869
0.633022
0.336824
1.20604e-16
0
0.296198
0.55667
0.75
0.852869
0.852869
0.75
0.55667
0.296198
1.06058e-16
0
0.219846
0.413176
0.55667
0.633022
0.633022
0.55667
0.413176
0.219846
7.87188e-17
0
0.116978
0.219846
0.296198
0.336824
0.336824
0.296198
0.219846
0.116978
4.18854e-17
0
4.18854e-17
7.87188e-17
1.06058e-16
1.20604e-16
1.20604e-16
1.06058e-16
7.87188e-17
4.18854e-17
1.49976e-32
