# vtk DataFile Version 3.0
Laplacian Solver Output
ASCII
DATASET STRUCTURED_GRID
DIMENSIONS 8 8 1
POINTS 64 double
0 0 0.0
0.142857 0 0.0
0.285714 0 0.0
0.428571 0 0.0
0.571429 0 0.0
0.714286 0 0.0
0.857143 0 0.0
1 0 0.0
0 0.142857 0.0
0.142857 0.142857 0.0
0.285714 0.142857 0.0
0.428571 0.142857 0.0
0.571429 0.142857 0.0
0.714286 0.142857 0.0
0.857143 0.142857 0.0
1 0.142857 0.0
0 0.285714 0.0
0.142857 0.285714 0.0
0.285714 0.285714 0.0
0.428571 0.285714 0.0
0.571429 0.285714 0.0
0.714286 0.285714 0.0
0.857143 0.285714 0.0
1 0.285714 0.0
0 0.428571 0.0
0.142857 0.428571 0.0
0.285714 0.428571 0.0
0.428571 0.428571 0.0
0.571429 0.428571 0.0
0.714286 0.428571 0.0
0.857143 0.428571 0.0
1 0.428571 0.0
0 0.571429 0.0
0.142857 0.571429 0.0
0.285714 0.571429 0.0
0.428571 0.571429 0.0
0.571429 0.571429 0.0
0.714286 0.571429 0.0
0.857143 0.571429 0.0
1 0.571429 0.0
0 0.714286 0.0
0.142857 0.714286 0.0
0.285714 0.714286 0.0
0.428571 0.714286 0.0
0.571429 0.714286 0.0
0.714286 0.714286 0.0
0.857143 0.714286 0.0
1 0.714286 0.0
0 0.857143 0.0
0.142857 0.857143 0.0
0.285714 0.857143 0.0
0.428571 0.857143 0.0
0.571429 0.857143 0.0
0.714286 0.857143 0.0
0.857143 0.857143 0.0
1 0.857143 0.0
0 1 0.0
0.142857 1 0.0
0.285714 1 0.0
0.428571 1 0.0
0.571429 1 0.0
0.714286 1 0.0
0.857143 1 0.0
1 1 0.0
POINT_DATA 64
SCALARS Numerical_Solution float 1
LOOKUP_TABLE default
1.1499
1.31417
1.50221
1.71759
1.96416
2.24604
2.5675
2.92932
1.31417
1.50191
1.71681
1.96296
2.24475
2.5669
2.93428
3.35143
1.50221
1.71681
1.96281
2.24496
2.56838
2.93871
3.36226
3.84629
1.71759
1.96296
2.24496
2.56906
2.94126
3.36826
3.85774
4.41871
1.96416
2.24475
2.56837
2.94126
3.37028
3.86331
4.42939
5.0791
2.24604
2.5669
2.93871
3.36826
3.86331
4.43294
5.08773
5.83994
2.5675
2.93428
3.36226
3.85774
4.42939
5.08773
5.84512
6.71583
2.92931
3.35143
3.84629
4.41871
5.0791
5.83994
6.71583
7.72362
SCALARS Exact_Solution float 1
LOOKUP_TABLE default
1
1.15356
1.33071
1.53506
1.77079
2.04273
2.35642
2.71828
1.15356
1.33071
1.53506
1.77079
2.04273
2.35642
2.71828
3.13571
1.33071
1.53506
1.77079
2.04273
2.35642
2.71828
3.13571
3.61725
1.53506
1.77079
2.04273
2.35642
2.71828
3.13571
3.61725
4.17273
1.77079
2.04273
2.35642
2.71828
3.13571
3.61725
4.17273
4.81352
2.04273
2.35642
2.71828
3.13571
3.61725
4.17273
4.81352
5.55271
2.35642
2.71828
3.13571
3.61725
4.17273
4.81352
5.55271
6.40541
2.71828
3.13571
3.61725
4.17273
4.81352
5.55271
6.40541
7.38906
