# vtk DataFile Version 3.0
Laplacian Solver Output
ASCII
DATASET STRUCTURED_GRID
DIMENSIONS 8 8 1
POINTS 64 double
0 0 0.0
0.142857 0 0.0
0.285714 0 0.0
0.428571 0 0.0
0.571429 0 0.0
0.714286 0 0.0
0.857143 0 0.0
1 0 0.0
0 0.142857 0.0
0.142857 0.142857 0.0
0.285714 0.142857 0.0
0.428571 0.142857 0.0
0.571429 0.142857 0.0
0.714286 0.142857 0.0
0.857143 0.142857 0.0
1 0.142857 0.0
0 0.285714 0.0
0.142857 0.285714 0.0
0.285714 0.285714 0.0
0.428571 0.285714 0.0
0.571429 0.285714 0.0
0.714286 0.285714 0.0
0.857143 0.285714 0.0
1 0.285714 0.0
0 0.428571 0.0
0.142857 0.428571 0.0
0.285714 0.428571 0.0
0.428571 0.428571 0.0
0.571429 0.428571 0.0
0.714286 0.428571 0.0
0.857143 0.428571 0.0
1 0.428571 0.0
0 0.571429 0.0
0.142857 0.571429 0.0
0.285714 0.571429 0.0
0.428571 0.571429 0.0
0.571429 0.571429 0.0
0.714286 0.571429 0.0
0.857143 0.571429 0.0
1 0.571429 0.0
0 0.714286 0.0
0.142857 0.714286 0.0
0.285714 0.714286 0.0
0.428571 0.714286 0.0
0.571429 0.714286 0.0
0.714286 0.714286 0.0
0.857143 0.714286 0.0
1 0.714286 0.0
0 0.857143 0.0
0.142857 0.857143 0.0
0.285714 0.857143 0.0
0.428571 0.857143 0.0
0.571429 0.857143 0.0
0.714286 0.857143 0.0
0.857143 0.857143 0.0
1 0.857143 0.0
0 1 0.0
0.142857 1 0.0
0.285714 1 0.0
0.428571 1 0.0
0.571429 1 0.0
0.714286 1 0.0
0.857143 1 0.0
1 1 0.0
POINT_DATA 64
SCALARS Numerical_Solution float 1
LOOKUP_TABLE default
0
0
0
0
0
0
0
0
0
0.191446
0.344975
0.430176
0.430176
0.344975
0.191446
0
0
0.344975
0.621623
0.775151
0.775151
0.621623
0.344975
0
0
0.430176
0.775151
0.966597
0.966597
0.775151
0.430176
0
0
0.430176
0.775151
0.966597
0.966597
0.775151
0.430176
0
0
0.344975
0.621623
0.775151
0.775151
0.621623
0.344975
0
0
0.191446
0.344975
0.430176
0.430176
0.344975
0.191446
0
0
0
0
0
0
0
0
0
SCALARS Exact_Solution float 1
LOOKUP_TABLE default
0
0
0
0
0
0
0
0
0
0.188255
0.339224
0.423005
0.423005
0.339224
0.188255
5.31354e-17
0
0.339224
0.61126
0.762229
0.762229
0.61126
0.339224
9.57467e-17
0
0.423005
0.762229
0.950484
0.950484
0.762229
0.423005
1.19394e-16
0
0.423005
0.762229
0.950484
0.950484
0.762229
0.423005
1.19394e-16
0
0.339224
0.61126
0.762229
0.762229
0.61126
0.339224
9.57467e-17
0
0.188255
0.339224
0.423005
0.423005
0.339224
0.188255
5.31354e-17
0
5.31354e-17
9.57467e-17
1.19394e-16
1.19394e-16
9.57467e-17
5.31354e-17
1.49976e-32
