# vtk DataFile Version 3.0
Laplacian Solver Output
ASCII
DATASET STRUCTURED_GRID
DIMENSIONS 10 10 1
POINTS 100 double
0 0 0.0
0.111111 0 0.0
0.222222 0 0.0
0.333333 0 0.0
0.444444 0 0.0
0.555556 0 0.0
0.666667 0 0.0
0.777778 0 0.0
0.888889 0 0.0
1 0 0.0
0 0.111111 0.0
0.111111 0.111111 0.0
0.222222 0.111111 0.0
0.333333 0.111111 0.0
0.444444 0.111111 0.0
0.555556 0.111111 0.0
0.666667 0.111111 0.0
0.777778 0.111111 0.0
0.888889 0.111111 0.0
1 0.111111 0.0
0 0.222222 0.0
0.111111 0.222222 0.0
0.222222 0.222222 0.0
0.333333 0.222222 0.0
0.444444 0.222222 0.0
0.555556 0.222222 0.0
0.666667 0.222222 0.0
0.777778 0.222222 0.0
0.888889 0.222222 0.0
1 0.222222 0.0
0 0.333333 0.0
0.111111 0.333333 0.0
0.222222 0.333333 0.0
0.333333 0.333333 0.0
0.444444 0.333333 0.0
0.555556 0.333333 0.0
0.666667 0.333333 0.0
0.777778 0.333333 0.0
0.888889 0.333333 0.0
1 0.333333 0.0
0 0.444444 0.0
0.111111 0.444444 0.0
0.222222 0.444444 0.0
0.333333 0.444444 0.0
0.444444 0.444444 0.0
0.555556 0.444444 0.0
0.666667 0.444444 0.0
0.777778 0.444444 0.0
0.888889 0.444444 0.0
1 0.444444 0.0
0 0.555556 0.0
0.111111 0.555556 0.0
0.222222 0.555556 0.0
0.333333 0.555556 0.0
0.444444 0.555556 0.0
0.555556 0.555556 0.0
0.666667 0.555556 0.0
0.777778 0.555556 0.0
0.888889 0.555556 0.0
1 0.555556 0.0
0 0.666667 0.0
0.111111 0.666667 0.0
0.222222 0.666667 0.0
0.333333 0.666667 0.0
0.444444 0.666667 0.0
0.555556 0.666667 0.0
0.666667 0.666667 0.0
0.777778 0.666667 0.0
0.888889 0.666667 0.0
1 0.666667 0.0
0 0.777778 0.0
0.111111 0.777778 0.0
0.222222 0.777778 0.0
0.333333 0.777778 0.0
0.444444 0.777778 0.0
0.555556 0.777778 0.0
0.666667 0.777778 0.0
0.777778 0.777778 0.0
0.888889 0.777778 0.0
1 0.777778 0.0
0 0.888889 0.0
0.111111 0.888889 0.0
0.222222 0.888889 0.0
0.333333 0.888889 0.0
0.444444 0.888889 0.0
0.555556 0.888889 0.0
0.666667 0.888889 0.0
0.777778 0.888889 0.0
0.888889 0.888889 0.0
1 0.888889 0.0
0 1 0.0
0.111111 1 0.0
0.222222 1 0.0
0.333333 1 0.0
0.444444 1 0.0
0.555556 1 0.0
0.666667 1 0.0
0.777778 1 0.0
0.888889 1 0.0
1 1 0.0
POINT_DATA 100
SCALARS Numerical_Solution float 1
LOOKUP_TABLE default
0
0
0
0
0
0
0
0
0
0
0
-0.0163811
-0.0300189
-0.0408259
-0.0485398
-0.0526264
-0.0521472
-0.0455191
-0.0299656
0
0
-0.0300189
-0.0546386
-0.0737718
-0.0869902
-0.0933587
-0.0912395
-0.0780163
-0.0496521
0
0
-0.0408259
-0.0737718
-0.0989163
-0.115831
-0.123376
-0.11949
-0.100964
-0.0631921
0
0
-0.0485398
-0.0869902
-0.115831
-0.134841
-0.142877
-0.137689
-0.115724
-0.0719747
0
0
-0.0526264
-0.0933587
-0.123376
-0.142877
-0.150913
-0.145234
-0.122093
-0.0760614
0
0
-0.0521472
-0.0912395
-0.11949
-0.137689
-0.145234
-0.140063
-0.118432
-0.0745134
0
0
-0.0455191
-0.0780163
-0.100964
-0.115724
-0.122093
-0.118432
-0.101394
-0.0651523
0
0
-0.0299656
-0.0496521
-0.0631921
-0.0719747
-0.0760614
-0.0745134
-0.0651523
-0.04355
0
0
0
0
0
0
0
0
0
0
0
SCALARS Exact_Solution float 1
LOOKUP_TABLE default
1
1.11111
1.22222
1.33333
1.44444
1.55556
1.66667
1.77778
1.88889
2
1.11111
1.22497
1.34156
1.46091
1.58299
1.70782
1.83539
1.96571
2.09877
2.23457
1.22222
1.34156
1.46639
1.59671
1.73251
1.8738
2.02058
2.17284
2.33059
2.49383
1.33333
1.46091
1.59671
1.74074
1.893
2.0535
2.22222
2.39918
2.58436
2.77778
1.44444
1.58299
1.73251
1.893
2.06447
2.24691
2.44033
2.64472
2.86008
3.08642
1.55556
1.70782
1.8738
2.0535
2.24691
2.45405
2.6749
2.90947
3.15775
3.41975
1.66667
1.83539
2.02058
2.22222
2.44033
2.6749
2.92593
3.19342
3.47737
3.77778
1.77778
1.96571
2.17284
2.39918
2.64472
2.90947
3.19342
3.49657
3.81893
4.16049
1.88889
2.09877
2.33059
2.58436
2.86008
3.15775
3.47737
3.81893
4.18244
4.5679
2
2.23457
2.49383
2.77778
3.08642
3.41975
3.77778
4.16049
4.5679
5
