# vtk DataFile Version 3.0
Laplacian Solver Output
ASCII
DATASET STRUCTURED_GRID
DIMENSIONS 8 8 1
POINTS 64 double
0 0 0.0
0.142857 0 0.0
0.285714 0 0.0
0.428571 0 0.0
0.571429 0 0.0
0.714286 0 0.0
0.857143 0 0.0
1 0 0.0
0 0.142857 0.0
0.142857 0.142857 0.0
0.285714 0.142857 0.0
0.428571 0.142857 0.0
0.571429 0.142857 0.0
0.714286 0.142857 0.0
0.857143 0.142857 0.0
1 0.142857 0.0
0 0.285714 0.0
0.142857 0.285714 0.0
0.285714 0.285714 0.0
0.428571 0.285714 0.0
0.571429 0.285714 0.0
0.714286 0.285714 0.0
0.857143 0.285714 0.0
1 0.285714 0.0
0 0.428571 0.0
0.142857 0.428571 0.0
0.285714 0.428571 0.0
0.428571 0.428571 0.0
0.571429 0.428571 0.0
0.714286 0.428571 0.0
0.857143 0.428571 0.0
1 0.428571 0.0
0 0.571429 0.0
0.142857 0.571429 0.0
0.285714 0.571429 0.0
0.428571 0.571429 0.0
0.571429 0.571429 0.0
0.714286 0.571429 0.0
0.857143 0.571429 0.0
1 0.571429 0.0
0 0.714286 0.0
0.142857 0.714286 0.0
0.285714 0.714286 0.0
0.428571 0.714286 0.0
0.571429 0.714286 0.0
0.714286 0.714286 0.0
0.857143 0.714286 0.0
1 0.714286 0.0
0 0.857143 0.0
0.142857 0.857143 0.0
0.285714 0.857143 0.0
0.428571 0.857143 0.0
0.571429 0.857143 0.0
0.714286 0.857143 0.0
0.857143 0.857143 0.0
1 0.857143 0.0
0 1 0.0
0.142857 1 0.0
0.285714 1 0.0
0.428571 1 0.0
0.571429 1 0.0
0.714286 1 0.0
0.857143 1 0.0
1 1 0.0
POINT_DATA 64
SCALARS Numerical_Solution float 1
LOOKUP_TABLE default
1.01695
0.916243
0.63406
0.226293
-0.226293
-0.63406
-0.916243
-1.01695
0.916243
0.825506
0.571268
0.203883
-0.203883
-0.571268
-0.825506
-0.916243
0.63406
0.571268
0.39533
0.141092
-0.141092
-0.39533
-0.571268
-0.63406
0.226293
0.203883
0.141092
0.050355
-0.050355
-0.141092
-0.203883
-0.226293
-0.226293
-0.203883
-0.141092
-0.050355
0.050355
0.141092
0.203883
0.226293
-0.63406
-0.571268
-0.39533
-0.141092
0.141092
0.39533
0.571268
0.63406
-0.916243
-0.825506
-0.571268
-0.203883
0.203883
0.571268
0.825506
0.916243
-1.01695
-0.916243
-0.63406
-0.226293
0.226293
0.63406
0.916243
1.01695
SCALARS Exact_Solution float 1
LOOKUP_TABLE default
1
0.900969
0.62349
0.222521
-0.222521
-0.62349
-0.900969
-1
0.900969
0.811745
0.561745
0.200484
-0.200484
-0.561745
-0.811745
-0.900969
0.62349
0.561745
0.38874
0.13874
-0.13874
-0.38874
-0.561745
-0.62349
0.222521
0.200484
0.13874
0.0495156
-0.0495156
-0.13874
-0.200484
-0.222521
-0.222521
-0.200484
-0.13874
-0.0495156
0.0495156
0.13874
0.200484
0.222521
-0.62349
-0.561745
-0.38874
-0.13874
0.13874
0.38874
0.561745
0.62349
-0.900969
-0.811745
-0.561745
-0.200484
0.200484
0.561745
0.811745
0.900969
-1
-0.900969
-0.62349
-0.222521
0.222521
0.62349
0.900969
1
